# vtk DataFile Version 2.0
Ansys 2 VTK
ASCII
DATASET UNSTRUCTURED_GRID
POINTS 1431 float
-1.622129007704 0.4279388681150 0.4440892098501E-15
-1.622970313260 0.4278915670571 0.3885780586188E-15
-1.622934540109 0.4279285559142 0.1665334536938E-15
-1.622896971562 0.4279637213670 0.4440892098501E-15
-1.622857822786 0.4279971193789 0.3885780586188E-15
-1.622817219936 0.4280287337633 0.3330669073875E-15
-1.622775226717 0.4280584759758 0.2775557561563E-15
-1.622731858634 0.4280861736685 0.1110223024625E-15
-1.622687091156 0.4281115445028 0.4440892098501E-15
-1.622640866797 0.4281341463599 0.2775557561563E-15
-1.622593109839 0.4281532849325 0.2775557561563E-15
-1.622543773481 0.4281678395748 0.2775557561563E-15
-1.622493014912 0.4281760574236 0.2220446049250E-15
-1.622441608891 0.4281764271986 0.3885780586188E-15
-1.622390854470 0.4281682886676 0.3330669073875E-15
-1.622342117744 0.4281519290658 0.3330669073875E-15
-1.622296344473 0.4281284962795 0.4440892098501E-15
-1.622253878799 0.4280994760734 0.2220446049250E-15
-1.622215088261 0.4280657019601 0.4440892098501E-15
-1.622180705488 0.4280274552636 0.2775557561563E-15
-1.622151647374 0.4279850294696 0.1665334536938E-15
-1.621961565115 0.4277650022350 0.3885780586188E-15
-1.622113085212 0.4279129091817 0.4440892098501E-15
-1.622095317899 0.4278881772133 0.3330669073875E-15
-1.622075882875 0.4278647306888 0.2775557561563E-15
-1.622055197777 0.4278423761952 0.2775557561563E-15
-1.622033547697 0.4278209542286 0.4440892098501E-15
-1.622010939216 0.4278005478433 0.3330669073875E-15
-1.621987049346 0.4277816659696 0.4440892098501E-15
-1.621856623529 0.4277387734592 0.4440892098501E-15
-1.621935329718 0.4277584450411 0.3885780586188E-15
-1.621909094322 0.4277518878471 0.2775557561563E-15
-1.621882858925 0.4277453306532 0.4440892098501E-15
-1.621603610500 0.4274421106659 0.3330669073875E-15
-1.621809698402 0.4277183814169 0.1665334536938E-15
-1.621765665700 0.4276923274997 0.2775557561563E-15
-1.621725272857 0.4276609269821 0.4440892098501E-15
-1.621689142761 0.4276247001284 0.4440892098501E-15
-1.621657817467 0.4275842493273 0.4996003610813E-15
-1.621632279348 0.4275399293937 0.6106226635438E-15
-1.621613909793 0.4274922019427 0.2220446049250E-15
-1.621544187557 0.4271957108510 0.3330669073875E-15
-1.621593706676 0.4274010440301 0.3885780586188E-15
-1.621583802852 0.4273599773943 0.2775557561563E-15
-1.621573899029 0.4273189107585 0.3330669073875E-15
-1.621563995205 0.4272778441227 0.4440892098501E-15
-1.621554091381 0.4272367774869 0.3885780586188E-15
-1.620000000000 0.4266500000000 0.5551115123126E-15
-1.621402940000 0.4266500000000 0.5551115123126E-15
-1.620070147000 0.4266500000000 0.3330669073875E-15
-1.620140294000 0.4266500000000 0.5551115123126E-15
-1.620210441000 0.4266500000000 0.5551115123126E-15
-1.620280588000 0.4266500000000 0.4996003610813E-15
-1.620350735000 0.4266500000000 0.5551115123126E-15
-1.620420882000 0.4266500000000 0.5551115123126E-15
-1.620491029000 0.4266500000000 0.5551115123126E-15
-1.620561176000 0.4266500000000 0.5551115123126E-15
-1.620631323000 0.4266500000000 0.5551115123126E-15
-1.620701470000 0.4266500000000 0.5551115123126E-15
-1.620771617000 0.4266500000000 0.5551115123126E-15
-1.620841764000 0.4266500000000 0.5551115123126E-15
-1.620911911000 0.4266500000000 0.5551115123126E-15
-1.620982058000 0.4266500000000 0.5551115123126E-15
-1.621052205000 0.4266500000000 0.5551115123126E-15
-1.621122352000 0.4266500000000 0.5551115123126E-15
-1.621192499000 0.4266500000000 0.5551115123126E-15
-1.621262646000 0.4266500000000 0.5551115123126E-15
-1.621332793000 0.4266500000000 0.5551115123126E-15
-1.621413029111 0.4266889793465 0.2775557561563E-15
-1.621423118222 0.4267279586930 0.3330669073875E-15
-1.621433207334 0.4267669380395 0.4440892098501E-15
-1.621443296445 0.4268059173860 0.2220446049250E-15
-1.621453385556 0.4268448967325 0.2220446049250E-15
-1.621463474667 0.4268838760790 0.3330669073875E-15
-1.621473563779 0.4269228554255 0.3330669073875E-15
-1.621483652890 0.4269618347720 0.2775557561563E-15
-1.621493742001 0.4270008141185 0.3885780586188E-15
-1.621503831112 0.4270397934650 0.3885780586188E-15
-1.621513920224 0.4270787728115 0.2220446049250E-15
-1.621524009335 0.4271177521580 0.2775557561563E-15
-1.621534098446 0.4271567315045 0.3330669073875E-15
-1.623200000000 0.4276213717116 0.3330669073875E-15
-1.622989453822 0.4278690507783 0.4440892098501E-15
-1.623008594383 0.4278465344995 0.4440892098501E-15
-1.623027734945 0.4278240182207 0.3330669073875E-15
-1.623046875507 0.4278015019419 0.3330669073875E-15
-1.623066016068 0.4277789856631 0.2775557561563E-15
-1.623085156630 0.4277564693843 0.3885780586188E-15
-1.623104297192 0.4277339531055 0.1665334536938E-15
-1.623123437753 0.4277114368268 0.3885780586188E-15
-1.623142578315 0.4276889205480 0.3885780586188E-15
-1.623161718877 0.4276664042692 0.3330669073875E-15
-1.623180859438 0.4276438879904 0.2220446049250E-15
-1.623200000000 0.4295388681150 0.2775557561563E-15
-1.623200000000 0.4294856043260 0.3885780586188E-15
-1.623200000000 0.4294323405370 0.3885780586188E-15
-1.623200000000 0.4293790767480 0.3330669073875E-15
-1.623200000000 0.4293258129590 0.3885780586188E-15
-1.623200000000 0.4292725491700 0.2220446049250E-15
-1.623200000000 0.4292192853811 0.2775557561563E-15
-1.623200000000 0.4291660215921 0.3330669073875E-15
-1.623200000000 0.4291127578031 0.2775557561563E-15
-1.623200000000 0.4290594940141 0.2775557561563E-15
-1.623200000000 0.4290062302251 0.1665334536938E-15
-1.623200000000 0.4289529664362 0.3885780586188E-15
-1.623200000000 0.4288997026472 0.3330669073875E-15
-1.623200000000 0.4288464388582 0.3330669073875E-15
-1.623200000000 0.4287931750692 0.3330669073875E-15
-1.623200000000 0.4287399112802 0.4440892098501E-15
-1.623200000000 0.4286866474912 0.2775557561563E-15
-1.623200000000 0.4286333837023 0.3330669073875E-15
-1.623200000000 0.4285801199133 0.3885780586188E-15
-1.623200000000 0.4285268561243 0.4440892098501E-15
-1.623200000000 0.4284735923353 0.3330669073875E-15
-1.623200000000 0.4284203285463 0.4440892098501E-15
-1.623200000000 0.4283670647573 0.3885780586188E-15
-1.623200000000 0.4283138009684 0.3330669073875E-15
-1.623200000000 0.4282605371794 0.3885780586188E-15
-1.623200000000 0.4282072733904 0.2220446049250E-15
-1.623200000000 0.4281540096014 0.2220446049250E-15
-1.623200000000 0.4281007458124 0.3885780586188E-15
-1.623200000000 0.4280474820234 0.3330669073875E-15
-1.623200000000 0.4279942182345 0.4996003610813E-15
-1.623200000000 0.4279409544455 0.3330669073875E-15
-1.623200000000 0.4278876906565 0.2220446049250E-15
-1.623200000000 0.4278344268675 0.3885780586188E-15
-1.623200000000 0.4277811630785 0.2775557561563E-15
-1.623200000000 0.4277278992895 0.2220446049250E-15
-1.623200000000 0.4276746355006 0.2220446049250E-15
-1.620000000000 0.4295388681150 0.2775557561563E-15
-1.623093333333 0.4295388681150 0.2775557561563E-15
-1.622986666667 0.4295388681150 0.2775557561563E-15
-1.622880000000 0.4295388681150 0.2775557561563E-15
-1.622773333333 0.4295388681150 0.2220446049250E-15
-1.622666666667 0.4295388681150 0.2775557561563E-15
-1.622560000000 0.4295388681150 0.2775557561563E-15
-1.622453333333 0.4295388681150 0.2775557561563E-15
-1.622346666667 0.4295388681150 0.2775557561563E-15
-1.622240000000 0.4295388681150 0.2775557561563E-15
-1.622133333333 0.4295388681150 0.2775557561563E-15
-1.622026666667 0.4295388681150 0.2775557561563E-15
-1.621920000000 0.4295388681150 0.2775557561563E-15
-1.621813333333 0.4295388681150 0.2775557561563E-15
-1.621706666667 0.4295388681150 0.2775557561563E-15
-1.621600000000 0.4295388681150 0.2775557561563E-15
-1.621493333333 0.4295388681150 0.2775557561563E-15
-1.621386666667 0.4295388681150 0.2775557561563E-15
-1.621280000000 0.4295388681150 0.2775557561563E-15
-1.621173333333 0.4295388681150 0.2775557561563E-15
-1.621066666667 0.4295388681150 0.2775557561563E-15
-1.620960000000 0.4295388681150 0.2775557561563E-15
-1.620853333333 0.4295388681150 0.2775557561563E-15
-1.620746666667 0.4295388681150 0.2775557561563E-15
-1.620640000000 0.4295388681150 0.2775557561563E-15
-1.620533333333 0.4295388681150 0.2775557561563E-15
-1.620426666667 0.4295388681150 0.2775557561563E-15
-1.620320000000 0.4295388681150 0.2775557561563E-15
-1.620213333333 0.4295388681150 0.2775557561563E-15
-1.620106666667 0.4295388681150 0.2775557561563E-15
-1.620000000000 0.4294853705573 0.3885780586188E-15
-1.620000000000 0.4294318729996 0.3885780586188E-15
-1.620000000000 0.4293783754419 0.3885780586188E-15
-1.620000000000 0.4293248778842 0.3330669073875E-15
-1.620000000000 0.4292713803265 0.4440892098501E-15
-1.620000000000 0.4292178827689 0.2775557561563E-15
-1.620000000000 0.4291643852112 0.2220446049250E-15
-1.620000000000 0.4291108876535 0.3330669073875E-15
-1.620000000000 0.4290573900958 0.2775557561563E-15
-1.620000000000 0.4290038925381 0.2220446049250E-15
-1.620000000000 0.4289503949804 0.3885780586188E-15
-1.620000000000 0.4288968974227 0.2775557561563E-15
-1.620000000000 0.4288433998651 0.2775557561563E-15
-1.620000000000 0.4287899023074 0.3330669073875E-15
-1.620000000000 0.4287364047497 0.3885780586188E-15
-1.620000000000 0.4286829071920 0.3330669073875E-15
-1.620000000000 0.4286294096343 0.2220446049250E-15
-1.620000000000 0.4285759120766 0.2775557561563E-15
-1.620000000000 0.4285224145190 0.2775557561563E-15
-1.620000000000 0.4284689169613 0.3330669073875E-15
-1.620000000000 0.4284154194036 0.3330669073875E-15
-1.620000000000 0.4283619218459 0.3330669073875E-15
-1.620000000000 0.4283084242882 0.1665334536938E-15
-1.620000000000 0.4282549267305 0.3885780586188E-15
-1.620000000000 0.4282014291729 0.3330669073875E-15
-1.620000000000 0.4281479316152 0.3885780586188E-15
-1.620000000000 0.4280944340575 0.3330669073875E-15
-1.620000000000 0.4280409364998 0.3885780586188E-15
-1.620000000000 0.4279874389421 0.3330669073875E-15
-1.620000000000 0.4279339413844 0.3330669073875E-15
-1.620000000000 0.4278804438267 0.4440892098501E-15
[...]
POINT_DATA 1431

SCALARS eps_a float 1
LOOKUP_Table default
0.00261147 
0.00356765 
0 
0.00379805 
0 
0.00357472 
0 
0.00295138 
0 
0.00219817 
0 
0.00144656 
0 
0.00141529 
0 
0.00286116 
0 
0.00451547 
0 
0.00437886 
0 
0.0012321 
0 
0.00190554 
0 
0.0015938 
0 
0.00136318 
0 
0.00251345 
0 
0.00161311 
0 
0.00536323 
0 
0.00489315 
0 
0.00737907 
0 
0.00776833 
0 
0.00196284 
0 
0.00371639 
0 
0.00269098 
0 
0 
0.000385432 
0 
0 
0 
0 
0 
0 
0 
0 
0 
0 
0 
0.00125715 
0 
0.00119749 
0 
0.00105245 
0 
0.00074229 
0 
0 
0.0001681 
0 
0.000319587 
0 
0.000498335 
0 
0.000732475 
0 
0.00105168 
0 
0.00146128 
0 
0.00166173 
0 
0.00347298 
0 
0.00328618 
0 
0.00269596 
0 
0.00281288 
0 
0.0024874 
0 
0 
0 
0 
0 
0 
0 
0 
0 
0 
0 
0 
0 
0 
0 
0 
0 
0 
0 
0.000998762 
0 
0.000865218 
0 
0.000790373 
0 
0.00077162 
0 
0.00077525 
0 
0.000892322 
0 
0.00101081 
0 
0.00109174 
0 
0.00150564 
0 
0 
0 
0 
0 
0 
0 
0 
0 
0 
0 
0 
0 
0 
0 
0 
0 
0 
0 
0 
0 
0 
0 
0 
0 
0 
0 
0 
0 
0 
0 
0 
0 
0 
0 
0 
0 
0 
0 
0 
0 
0 
0 
0 
0 
0 
0 
0 
0 
0 
0 
0 
0 
0 
0 
0 
0 
0 
0 
0 
0 
0 
0 
0 
0 
0 
0 
0 
0 
0 
0 
0 
0 
0 
0 
0 
0 
0 
0 
0 
0 
0 
0 
0 
0 
0.000860548 
0.000852898 
0.000896115 
0 
0 
0 
0 
0.000860874 
0.000943642 
0 
0 
0 
0 
0 
0 
0 
0 
0.000918459 
0.000933417 
0.00124804 
0.00172725 
0.000937458 
0.000957435 
0.000950687 
0.00131524 
0.000920061 
0.00124388 
0.00129325 
0.00185108 
0.00143938 
0 
0 
0 
0 
0 
0 
0 
0 
0 
0 
0 
0 
0 
0 
0 
0 
0.00205225 
0 
0.0019263 
0.00106378 
0.00289901 
0.00106796 
0 
0 
0 
0.00264315 
0 
0 
0 
0 
0 
0 
0 
0 
0.00146358 
0.000944117 
0.000957014 
0.000908891 
0.00267773 
0.0023249 
0 
0 
0 
0 
0 
0 
0 
0 
0 
0.00098261 
0.000985692 
0.00317855 
0 
0 
0 
0 
0 
0.0023414 
0 
0.0022634 
0.0014223 
0 
0.00269161 
0.00147246 
0 
0 
0 
0.00240604 
0.00300913 
0.000506858 
0 
0 
0 
0 
0 
0 
0 
0 
0 
0 
0 
0 
0 
0 
0 
0 
0 
0 
0 
0 
0 
0 
0 
0 
0 
0 
0 
0 
0 
0 
0.00113289 
0 
0 
0 
0 
0 
0 
0 
0 
0 
0 
0 
0 
0 
0.000853208 
0.000846186 
0.00091091 
0 
0.000918514 
0.000957454 
0.000832553 
0.000985368 
0.00102506 
0.00082681 
0.000821039 
0 
0 
0.000938993 
0.000892997 
0 
0 
0 
0 
0 
0 
0 
0 
0 
0 
0.000928168 
0.00130911 
0 
0.000960942 
0.00100671 
0.000844363 
0 
0.00112799 
0 
0 
0 
0.00105152 
0.00108947 
0.000992266 
0.00300093 
0.00127542 
0 
0 
0 
0 
0 
0 
0 
0 
0 
0 
0 
0 
0 
0 
0 
0 
0.000854565 
0.00119151 
0.00128106 
0.00106799 
0.00102762 
0.000860155 
0.00115868 
0.000879915 
0.000931511 
0.00117949 
0.00112991 
0.0011727 
0.00154016 
0 
0 
0 
0.00109019 
0.00115903 
0.00111365 
0.000882348 
0.0020763 
0.0027134 
0.000894971 
0.00076997 
0.000996378 
0.00124189 
0.00225322 
0.00152975 
0 
0 
0 
0 
0.00142444 
0.00128161 
0 
0 
0 
0 
0 
0 
0 
0 
0 
0 
0 
0 
0 
0 
0 
0 
0 
0 
0 
0 
0.0010057 
0.00091516 
0.000876945 
0.00180035 
0.00119471 
0.00097945 
0.00148025 
0.00144683 
0.0021895 
0.00281746 
0.00316867 
0.00273738 
0.00195499 
0 
0 
0 
0 
0 
0 
0.00108134 
0.000972113 
0.000968019 
0 
0 
0 
0 
0 
0 
0 
0 
0 
0 
0 
0 
0 
0 
0 
0 
0 
0 
0 
0 
0 
0.000944033 
0.0011555 
0.00225511 
0.00103033 
0.00286265 
0.00207398 
0.00238002 
0.00243971 
0.00233994 
0.00211468 
0.00275312 
0.00233433 
0.0038494 
0.00302998 
0 
0 
0 
0 
0 
0 
0 
0.000917002 
0.000835533 
0.00081603 
0 
0 
0 
0 
0 
0 
0 
0 
0 
0 
0 
0 
0 
0 
0 
0 
0 
0 
0 
0 
0 
0 
0 
0 
0.00105901 
0.000826341 
0.000894138 
0.000949159 
0.000999235 
0.000882305 
0.00116418 
0.00191464 
0.00119519 
0.00109587 
0.000703491 
0.000645386 
0.000756375 
0.000870553 
0.000988463 
0.00309144 
0.00274453 
0.00217729 
0.00202616 
0.00180405 
0.00144857 
0.000380346 
0.000418522 
0.000545451 
0.000715081 
0.000925461 
0.00117213 
0.00169493 
0.00235281 
0.00171078 
0.00316064 
0.00136107 
0.00377025 
0.00229566 
0.0020761 
0.00121717 
0.0023175 
0 
0 
0 
0 
0.00255858 
0 
0 
0 
0 
0 
0 
0 
0 
0 
0 
0 
0 
0 
0 
0 
0 
0 
0 
0 
0 
0 
0 
0 
0 
0 
0 
0 
0 
0 
0 
0 
0 
0 
0 
0 
0 
0 
0 
0 
0 
0 
0 
0 
0 
0 
0 
0 
0 
0 
0 
0 
0 
0 
0 
0 
0 
0 
0 
0 
0 
0 
0 
0 
0 
0 
0 
0 
0 
0 
0 
0 
0 
0 
0 
0 
0 
0 
0 
0 
0 
0 
0 
0 
0 
0 
0 
0 
0 
0 
0 
0 
0 
0 
0 
0 
0 
0 
0 
0 
0 
0 
0 
0 
0 
0 
0 
0 
0 
0 
0 
0 
0 
0 
0 
0 
0 
0 
0 
0 
0 
0 
0 
0 
0 
0 
0 
0 
0 
0 
0 
0 
0 
0 
0 
0 
0 
0 
0 
0 
0 
0 
0 
0 
0 
0 
0 
0 
0 
0 
0 
0 
0 
0 
0 
0 
0 
0 
0 
0 
0 
0 
0 
0 
0 
0 
0 
0 
0 
0 
0 
0 
0 
0 
0 
0 
0 
0 
0 
0 
0 
0 
0 
0 
0 
0 
0 
0 
0 
0 
0 
0 
0 
0 
0 
0 
0 
0 
0 
0 
0 
0 
0 
0 
0 
0 
0 
0 
0 
0 
0 
0 
0 
0 
0 
0 
0 
0 
0 
0 
0 
0 
0 
0 
0 
0 
0 
0 
0 
0 
0 
0 
0 
0 
0 
0 
0 
0 
0 
0 
0 
0 
0 
0 
0 
0 
0 
0 
0 
0 
0 
0 
0 
0 
0 
0 
0 
0 
0 
0 
0 
0 
0 
0 
0 
0 
0 
0 
0 
0 
0 
0 
0 
0 
0 
0 
0 
0 
0 
0 
0 
0 
0 
0 
0 
0 
0 
0 
0 
0 
0 
0 
0 
0 
0 
0 
0 
0 
0 
0 
0 
0 
0 
0 
0 
0 
0 
0 
0 
0 
0 
0 
0 
0 
0 
0 
0 
0 
0 
0 
0 
0 
0 
0 
0 
0 
0 
0 
0 
0 
0 
0 
0 
0 
0 
0 
0 
0 
0 
0 
0 
0 
0 
0 
0 
0 
0 
0 
0 
0 
0 
0 
0 
0 
0 
0 
0 
0 
0 
0 
0 
0 
0 
0 
0 
0 
0 
0 
0 
0 
0 
0 
0 
0 
0 
0 
0 
0 
0 
0 
0 
0 
0 
0 
0 
0 
0 
0 
0 
0 
0 
0 
0 
0 
0 
0 
0 
0 
0 
0 
0 
0 
0 
0 
0 
0 
0 
0 
0 
0 
0 
0 
0 
0 
0 
0 
0 
0 
0 
0 
0 
0 
0 
0 
0 
0 
0 
0 
0 
0 
0 
0 
0 
0 
0 
0 
0 
0 
0 
0 
0 
0 
0 
0 
0 
0 
0 
0 
0 
0 
0 
0 
0 
0 
0 
0 
0 
0 
0 
0 
0 
0 
0 
0 
0 
0 
0 
0 
0 
0 
0 
0 
0 
0 
0 
0 
0 
0 
0 
0 
0 
0 
0 
0 
0 
0 
0 
0 
0 
0 
0 
0 
0 
0 
0 
0 
0 
0 
0 
0 
0 
0 
0 
0 
0 
0 
0 
0 
0 
0 
0 
0 
0 
0 
0 
0 
0 
0 
0 
0 
0 
0 
0 
0 
0 
0 
0 
0 
0 
0 
0 
0 
0 
0 
0 
0 
0 
0 
0 
0 
0 
0 
0 
0 
0 
0 
0 
0 
0 
0 
0 
0 
0 
0 
0 
0 
0 
0 
0 
0 
0 
0 
0 
0 
0 
0 
0 
0 
0 
0 
0 
0 
0 
0 
0 
0 
0 
0 
0 
0 
0 
0 
0 
0 
0 
0 
0 
0 
0 
0 
0 
0 
0 
0 
0 
0 
0 
0 
0 
0 
0 
0 
0 
0 
0 
0 
0 
0 
0 
0 
0 
0 
0 
0 
0 
0 
0 
0 
0 
0 
0 
0 
0 
0 
0 
0 
0 
0 
0 
0 
0 
0 
0 
0 
0 
0 
0 
0 
0 
0 
0 
0 
0 
0 
0 
0 
0 
0 
0 
0 
0 
0 
0 
0 
0 
0 
0 
0 
0 
0 
0 
0 
0 
0 
0 
0 
0 
0 
0 
0 
0 
0 
0 
0 
0 
0 
0 
0 
0 
0 
0 
0 
0 
0 
0 
0 
0 
0 
0 
0 
0 
0 
0 
0 
0 
0 
0 
0 
0 
0 
0 
0 
0 
0 
0 
0 
0 
0 
0 
0 
0 
0 
0 
0 
0 
0 
0 
0 
0 
0 
0 
0 
0 
0 
0 
0 
0 
0 
0 
0 
0 
0 
0 
0 
0 
0 
0 
0 
0 
0 
0 
0 
0 
0 
0 
0 
0 
0 
0 
0 
0 
0 
0 
0 
0 
0 
0 
0 
0 
0 
0 
0 
0 
0 
0 
0 
0 
0 
0 
0 
0 
0 
0 
0 
0 
0 
0 
0 
0 
0 
0 
0 
0 
0 
0 
0 
0 
0 
0 
0 
0 
0 
0 
0 
0 
0 
0 
0 
0 
0 
0 
0 
0 
0 
0 
0 
0 
0 
0 
0 
0 
0 
0 
0 
0 
0 
0 
0 
0 
0 
0 
0 
0 
0 
0 
0 
0 
0 
0 
0 
0 

SCALARS Nbr float 1
LOOKUP_Table default
216 
224 
225 
226 
227 
228 
229 
230 
231 
232 
233 
234 
235 
236 
237 
238 
239 
240 
241 
242 
243 
352 
360 
361 
362 
363 
364 
365 
366 
404 
412 
413 
414 
436 
444 
445 
446 
447 
448 
449 
450 
490 
498 
499 
500 
501 
502 
526 
534 
535 
536 
537 
538 
539 
540 
541 
542 
543 
544 
545 
546 
547 
548 
549 
550 
551 
552 
553 
667 
668 
669 
670 
671 
672 
673 
674 
675 
676 
677 
678 
679 
755 
756 
757 
758 
759 
760 
761 
762 
763 
764 
765 
766 
827 
828 
829 
830 
831 
832 
833 
834 
835 
836 
837 
838 
839 
840 
841 
842 
843 
844 
845 
846 
847 
848 
849 
850 
851 
852 
853 
854 
855 
856 
857 
858 
859 
860 
861 
862 
863 
864 
865 
866 
867 
868 
869 
870 
871 
872 
873 
874 
875 
876 
877 
878 
879 
880 
881 
882 
883 
884 
885 
886 
887 
888 
889 
890 
891 
892 
893 
894 
895 
896 
897 
898 
899 
900 
901 
902 
903 
904 
905 
906 
907 
908 
909 
910 
911 
912 
913 
914 
915 
916 
917 
918 
919 
920 
921 
922 
923 
924 
925 
926 
927 
928 
929 
930 
931 
932 
933 
934 
935 
936 
937 
938 
939 
940 
941 
942 
943 
944 
945 
946 
947 
948 
949 
950 
951 
952 
953 
954 
955 
956 
957 
958 
959 
960 
961 
962 
963 
964 
965 
966 
967 
968 
969 
970 
971 
972 
973 
974 
975 
976 
977 
978 
979 
980 
981 
982 
983 
984 
985 
986 
987 
988 
989 
990 
991 
992 
993 
994 
995 
996 
997 
998 
999 
1000 
1001 
1002 
1003 
1004 
1005 
1006 
1007 
1008 
1009 
1010 
1011 
1012 
1013 
1014 
1015 
1016 
1017 
1018 
1019 
1020 
1021 
1022 
1023 
1024 
1025 
1026 
1027 
1028 
1029 
1030 
1031 
1032 
1033 
1034 
1035 
1036 
1037 
1038 
1039 
1040 
1041 
1042 
1043 
1044 
1045 
1046 
1047 
1048 
1049 
1050 
1051 
1052 
1053 
1054 
1055 
1056 
1057 
1058 
1059 
1060 
1061 
1062 
1063 
1064 
1065 
1066 
1067 
1068 
1069 
1070 
1071 
1072 
1073 
1074 
1075 
1076 
1077 
1078 
1079 
1080 
1081 
1082 
1083 
1084 
1085 
1086 
1087 
1088 
1089 
1090 
1091 
1092 
1093 
1094 
1095 
1096 
1097 
1098 
1099 
1100 
1101 
1102 
1103 
1104 
1105 
1106 
1107 
1108 
1109 
1110 
1111 
1112 
1113 
1114 
1115 
1116 
1117 
1118 
1119 
1120 
1121 
1122 
1123 
1124 
1125 
1126 
1127 
1128 
1129 
1130 
1131 
1132 
1133 
1134 
1135 
1136 
1137 
1138 
1139 
1140 
1141 
1142 
1143 
1144 
1145 
1146 
1147 
1148 
1149 
1150 
1151 
1152 
1153 
1154 
1155 
1156 
1157 
1158 
1159 
1160 
1161 
1162 
1163 
1164 
1165 
1166 
1167 
1168 
1169 
1170 
1171 
1172 
1173 
1174 
1175 
1176 
1177 
1178 
1179 
1180 
1181 
1182 
1183 
1184 
1185 
1186 
1187 
1188 
1189 
1190 
1191 
1192 
1193 
1194 
1195 
1196 
1197 
1198 
1199 
1200 
1201 
1202 
1203 
1204 
1205 
1206 
1207 
1208 
1209 
1210 
1211 
1212 
1213 
1214 
1215 
1216 
1217 
1218 
1219 
1220 
1221 
1222 
1223 
1224 
1225 
1226 
1227 
1228 
1229 
1230 
1231 
1232 
1233 
1234 
1235 
1236 
1237 
1238 
1239 
1240 
1241 
1242 
1243 
1244 
1245 
1246 
1247 
1248 
1249 
1250 
1251 
1252 
1253 
1254 
1255 
1256 
1257 
1258 
1259 
1260 
1261 
1262 
1263 
1264 
1265 
1266 
1267 
1268 
1269 
1270 
1271 
1272 
1273 
1274 
1275 
1276 
1277 
1278 
1279 
1280 
1281 
1282 
1283 
1284 
1285 
1286 
1287 
1288 
1289 
1290 
1291 
1292 
1293 
1294 
1295 
1296 
1297 
1298 
1299 
1300 
1301 
1302 
1303 
1304 
1305 
1306 
1307 
1308 
1309 
1310 
1311 
1312 
1313 
1314 
1315 
1316 
1317 
1318 
1319 
1320 
1321 
1322 
1323 
1324 
1325 
1326 
1327 
1328 
1329 
1330 
1331 
1332 
1333 
1334 
1335 
1336 
1337 
1338 
1339 
1340 
1341 
1342 
1343 
1344 
1345 
1346 
1347 
1348 
1349 
1350 
1351 
1352 
1353 
1354 
1355 
1356 
1357 
1358 
1359 
1360 
1361 
1362 
1363 
1364 
1365 
1366 
1367 
1368 
1369 
1370 
1371 
1372 
1373 
1374 
1375 
1376 
1377 
1378 
1379 
1380 
1381 
1382 
1383 
1384 
1385 
1386 
1387 
1388 
1389 
1390 
1391 
1392 
1393 
1394 
1395 
1396 
1397 
1398 
1399 
1400 
1401 
1402 
1403 
1404 
1405 
1406 
1407 
1408 
1409 
1410 
1411 
1412 
1413 
1414 
1415 
1416 
1417 
1418 
1419 
1420 
1421 
1422 
1423 
1424 
1425 
1426 
1427 
1428 
1429 
1430 
1431 
1432 
1433 
1434 
1435 
1436 
1437 
1438 
1439 
1440 
1441 
1442 
1443 
1444 
1445 
1446 
1447 
1448 
1449 
1450 
1451 
1452 
1453 
1454 
1455 
1456 
1457 
1458 
1459 
1460 
1461 
1462 
1463 
1464 
1465 
1466 
1467 
1468 
1469 
1470 
1471 
1472 
1473 
1474 
1475 
1476 
1477 
1478 
1479 
1480 
1481 
1482 
1483 
1484 
1485 
1486 
1487 
1488 
1489 
1490 
1491 
1492 
1493 
1494 
1495 
1496 
1497 
1498 
1499 
1500 
1501 
1502 
1503 
1504 
1505 
1506 
1507 
1508 
1509 
1510 
1511 
1512 
1513 
1514 
1515 
1516 
1517 
1518 
1519 
1520 
1521 
1522 
1523 
1524 
1525 
1526 
1527 
1528 
1529 
1530 
1531 
1532 
1533 
1534 
1535 
1536 
1537 
1538 
1539 
1540 
1541 
1542 
1543 
1544 
1545 
1546 
1547 
1548 
1549 
1550 
1551 
1552 
1553 
1554 
1555 
1556 
1557 
1558 
1559 
1560 
1561 
1562 
1563 
1564 
1565 
1566 
1567 
1568 
1569 
1570 
1571 
1572 
1573 
1574 
1575 
1576 
1577 
1578 
1579 
1580 
1581 
1582 
1583 
1584 
1585 
1586 
1587 
1588 
1589 
1590 
1591 
1592 
1593 
1594 
1595 
1596 
1597 
1598 
1599 
1600 
1601 
1602 
1603 
1604 
1605 
1606 
1607 
1608 
1609 
1610 
1611 
1612 
1613 
1614 
1615 
1616 
1617 
1618 
1619 
1620 
1621 
1622 
1623 
1624 
1625 
1626 
1627 
1628 
1629 
1630 
1631 
1632 
1633 
1634 
1635 
1636 
1637 
1638 
1639 
1640 
1641 
1642 
1643 
1644 
1645 
1646 
1647 
1648 
1649 
1650 
1651 
1652 
1653 
1654 
1655 
1656 
1657 
1658 
1659 
1660 
1661 
1662 
1663 
1664 
1665 
1666 
1667 
1668 
1669 
1670 
1671 
1672 
1673 
1674 
1675 
1676 
1677 
1678 
1679 
1680 
1681 
1682 
1683 
1684 
1685 
1686 
1687 
1688 
1689 
1690 
1691 
1692 
1693 
1694 
1695 
1696 
1697 
1698 
1699 
1700 
1701 
1702 
1703 
1704 
1705 
1706 
1707 
1708 
1709 
1710 
1711 
1712 
1713 
1714 
1715 
1716 
1717 
1718 
1719 
1720 
1721 
1722 
1723 
1724 
1725 
1726 
1727 
1728 
1729 
1730 
1731 
1732 
1733 
1734 
1735 
1736 
1737 
1738 
1739 
1740 
1741 
1742 
1743 
1744 
1745 
1746 
1747 
1748 
1749 
1750 
1751 
1752 
1753 
1754 
1755 
1756 
1757 
1758 
1759 
1760 
1761 
1762 
1763 
1764 
1765 
1766 
1767 
1768 
1769 
1770 
1771 
1772 
1773 
1774 
1775 
1776 
1777 
1778 
1779 
1780 
1781 
1782 
1783 
1784 
1785 
1786 
1787 
1788 
1789 
1790 
1791 
1792 
1793 
1794 
1795 
1796 
1797 
1798 
1799 
1800 
1801 
1802 
1803 
1804 
1805 
1806 
1807 
1808 
1809 
1810 
1811 
1812 
1813 
1814 
1815 
1816 
1817 
1818 
1819 
1820 
1821 
1822 
1823 
1824 
1825 
1826 
1827 
1828 
1829 
1830 
1831 
1832 
1833 
1834 
1835 
1836 
1837 
1838 
1839 
1840 
1841 
1842 
1843 
1844 
1845 
1846 
1847 
1848 
1849 
1850 
1851 
1852 
1853 
1854 
1855 
1856 
1857 
1858 
1859 
1860 
1861 
1862 
1863 
1864 
1865 
1866 
1867 
1868 
1869 
1870 
1871 
1872 
1873 
1874 
1875 
1876 
1877 
1878 
1879 
1880 
1881 
1882 
1883 
1884 
1885 
1886 
1887 
1888 
1889 
1890 
1891 
1892 
1893 
1894 
1895 
1896 
1897 
1898 
1899 
1900 
1901 
1902 
1903 
1904 
1905 
1906 
1907 
1908 
1909 
1910 
1911 
1912 
1913 
1914 
1915 
1916 
1917 
1918 
1919 
1920 
1921 
1922 
1923 
1924 
1925 
1926 
1927 
1928 
1929 
1930 
1931 
1932 
1933 
1934 
1935 
1936 
1937 
1938 
1939 
1940 
1941 
1942 
1943 
1944 
1945 
1946 
1947 
1948 
1949 
1950 
1951 
1952 
1953 
1954 
1955 
1956 
1957 
1958 
1959 
1960 
1961 
1962 
1963 
1964 
1965 
1966 
1967 
1968 
1969 
1970 
1971 
1972 
1973 
1974 
1975 
1976 
1977 
1978 
1979 
1980 
1981 
1982 
1983 
1984 
1985 
1986 
1987 
1988 
1989 
1990 
1991 
1992 
1993 
1994 
1995 
1996 
1997 
1998 
1999 
2000 
2001 
2002 
2003 
2004 
2005 
2006 
2007 
2008 
2009 
2010 
2011 
2012 
2013 
2014 
2015 
2016 
2017 
2018 
2019 
2020 
2021 
2022 
2023 
2024 
2025 
2026 
2027 
2028 
2029 
2030 
2031 
2032 
2033 
2034 
2035 
2036 
2037 
2038 
2039 
2040 
2041 
2042 
2043 
2044 
2045 
2046 
2047 
2048 
2049 
2050 
2051 
2052 
2053 
2054 
2055 
2056 
2057 
2058 
2059 
2060 
2061 
2062 
2063 
2064 
2065 
2066 
2067 
2068 
2069 
2070 
2071 
2072 
2073 
2074 
2075 
2076 
2077 
2078 
2079 
2080 
2081 
2082 
2083 
2084 
2085 
2086 
2087 
2088 
2089 
2090 
2091 
2092 
2093 
2094 
2095 
2096 
2097 
2098 
2099 
2100 
2101 
2102 
2103 
2104 
2105 
2106 
2107 
2108 
2109 
2110 
2111 
2112 
2113 
2114 
2115 
2116 
2117 
2118 
2119 
2120 
2121 
2122 
2123 
2124 
2125 
2126 
2127 
2128 
2129 
2130 
2131 
2132 
2133 
2134 
2135 
2136 
2137 
2138 
2139 
2140 
2141 
2142 
2143 
2144 
2145 
2146 
2147 
2148 
2149 
2150 
2151 
2152 
2153 
2154 
2155 
2156 
2157 
2158 
2159 
2160 
2161 
2162 
2163 
2164 

SCALARS Random float 1
LOOKUP_Table default
0.971595 
0.379712 
0.79801 
0.72999 
0.944528 
0.358098 
0.0741088 
0.679571 
0.310423 
0.297462 
0.322079 
0.6387 
0.35761 
0.588338 
0.58788 
0.0439096 
0.917871 
0.362653 
0.730389 
0.229026 
0.614325 
0.456798 
0.61306 
0.436711 
0.21093 
0.0866261 
0.796109 
0.96418 
0.725919 
0.793805 
0.90563 
0.598053 
0.623671 
0.795039 
0.626925 
0.848306 
0.81691 
0.0374628 
0.9354 
0.701 
0.753695 
0.255641 
0.503128 
0.628102 
0.514724 
0.679178 
0.736994 
0.0596349 
0.253722 
0.541764 
0.700475 
0.215517 
0.560769 
0.690962 
0.0666349 
0.735411 
0.326103 
0.391887 
0.247326 
0.976877 
0.792367 
0.0133359 
0.725574 
0.875531 
0.626974 
0.512129 
0.0940713 
0.967118 
0.473687 
0.116303 
0.57378 
0.474408 
0.316462 
0.360516 
0.968897 
0.763891 
0.329659 
0.667753 
0.33866 
0.17374 
0.0143909 
0.727993 
0.750796 
0.734241 
0.323858 
0.237493 
0.259088 
0.571786 
0.752342 
0.428024 
0.232293 
0.124491 
0.674767 
0.419461 
0.998456 
0.273287 
0.915728 
0.257119 
0.999061 
0.518674 
0.457893 
0.388637 
0.840269 
0.26853 
0.0642267 
0.296625 
0.68675 
0.153593 
0.933807 
0.782833 
0.710217 
0.918521 
0.0335511 
0.431026 
0.21383 
0.139869 
0.654679 
0.844656 
0.421655 
0.621552 
0.669665 
0.460943 
0.872029 
0.204088 
0.737231 
0.718379 
0.383311 
0.610824 
0.544155 
0.726607 
0.0497608 
0.277148 
0.381857 
0.52529 
0.953709 
0.755254 
0.0819133 
0.910425 
0.868538 
0.157512 
0.265655 
0.109938 
0.364378 
0.240859 
0.966997 
0.780801 
0.355672 
0.686529 
0.532873 
0.760324 
0.129396 
0.782256 
0.132525 
0.8083 
0.90672 
0.257907 
0.274338 
0.126875 
0.99552 
0.714758 
0.371697 
0.852444 
0.0927698 
0.91426 
0.497443 
0.80362 
0.427791 
0.978081 
0.310615 
0.543122 
0.651437 
0.0409535 
0.691173 
0.834039 
0.405316 
0.801317 
0.266962 
0.529734 
0.753506 
0.478431 
0.0628788 
0.568094 
0.217499 
0.919294 
0.759771 
0.56621 
0.182994 
0.234441 
0.072565 
0.846834 
0.87548 
0.0824348 
0.253765 
0.14273 
0.481918 
0.855562 
0.74812 
0.00933631 
0.720147 
0.31981 
0.364296 
0.797839 
0.154351 
0.119799 
0.860693 
0.329762 
0.477029 
0.885143 
0.276967 
0.765836 
0.177352 
0.0500749 
0.420142 
0.119257 
0.0085499 
0.606294 
0.00772759 
0.773888 
0.341645 
0.990353 
0.568843 
0.233473 
0.862792 
0.159053 
0.252769 
0.882745 
0.283222 
0.966968 
0.604219 
0.309141 
0.0948447 
0.726042 
0.0521303 
0.140112 
0.369399 
0.017481 
0.521564 
0.550082 
0.55944 
0.354633 
0.778501 
0.1605 
0.823353 
0.554767 
0.846966 
0.524996 
0.523691 
0.728796 
0.874937 
0.674218 
0.337396 
0.594472 
0.841731 
0.912495 
0.231938 
0.293774 
0.176858 
0.0055387 
0.404514 
0.763748 
0.627987 
0.788272 
0.725907 
0.477761 
0.676324 
0.131534 
0.76401 
0.729776 
0.244796 
0.971355 
0.105559 
0.522814 
0.434337 
0.998312 
0.877267 
0.205351 
0.0914267 
0.519357 
0.496742 
0.399079 
0.445087 
0.298097 
0.443652 
0.935654 
0.736254 
0.337388 
0.177357 
0.222883 
0.107306 
0.843914 
0.33431 
0.858671 
0.525259 
0.765729 
0.869822 
0.521725 
0.669394 
0.868747 
0.865625 
0.306738 
0.242262 
0.127364 
0.784299 
0.474183 
0.827944 
0.737995 
0.681464 
0.349343 
0.451665 
0.13486 
0.945061 
0.200722 
0.501409 
0.250857 
0.19387 
0.78665 
0.994667 
0.0918883 
0.183354 
0.0346121 
0.0205782 
0.532867 
0.22818 
0.991869 
0.651478 
0.175563 
0.116605 
0.937029 
0.410761 
0.796669 
0.00679028 
0.0171089 
0.380498 
0.898576 
0.2371 
0.539155 
0.532886 
0.464877 
0.112099 
0.904858 
0.192597 
0.226903 
0.0662468 
0.347012 
0.166412 
0.882598 
0.0751131 
0.245157 
0.978633 
0.922792 
0.766554 
0.928474 
0.270251 
0.917241 
0.550647 
0.136387 
0.231282 
0.152186 
0.386786 
0.0454628 
0.26188 
0.906769 
0.13492 
0.346412 
0.921769 
0.375624 
0.936136 
0.271403 
0.72037 
0.86172 
0.177101 
0.937135 
0.350907 
0.84827 
0.313157 
0.036711 
0.736489 
0.0544482 
0.403995 
0.877983 
0.128851 
0.434976 
0.735262 
0.230176 
0.772362 
0.470614 
0.264152 
0.88938 
0.0903548 
0.673883 
0.57386 
0.625816 
0.266522 
0.619762 
0.575804 
0.299279 
0.419271 
0.617559 
0.0607891 
0.13682 
0.181615 
0.458399 
0.509647 
0.217183 
0.384716 
0.359834 
0.127984 
0.619133 
0.404394 
0.174127 
0.93543 
0.592703 
0.533929 
0.651524 
0.752172 
0.443381 
0.13878 
0.63868 
0.63048 
0.885191 
0.332172 
0.202457 
0.464606 
0.401273 
0.697032 
0.569406 
0.716101 
0.518758 
0.707209 
0.298563 
0.887575 
0.390906 
0.572853 
0.422365 
0.448876 
0.670913 
0.448749 
0.548965 
0.562026 
0.573095 
0.663725 
0.749137 
0.0960458 
0.43777 
0.0701288 
0.195771 
0.437225 
0.971965 
0.457701 
0.758275 
0.389338 
0.947349 
0.398493 
0.295068 
0.382954 
0.121904 
0.0926739 
0.484347 
0.367587 
0.0564374 
0.0688995 
0.365476 
0.301309 
0.0679972 
0.602507 
0.836186 
0.21312 
0.218723 
0.857044 
0.467786 
0.860588 
0.44731 
0.142267 
0.172525 
0.729801 
0.264677 
0.867793 
0.932037 
0.856557 
0.00364078 
0.512195 
0.516648 
0.531575 
0.806242 
0.542431 
0.997039 
0.374167 
0.223318 
0.442972 
0.0644783 
0.0818369 
0.35962 
0.360667 
0.620171 
0.442732 
0.517952 
0.714502 
0.736329 
0.570627 
0.683187 
0.193808 
0.480574 
0.254019 
0.616479 
0.390015 
0.406514 
0.996641 
0.533607 
0.590988 
0.825011 
0.570018 
0.291694 
0.23046 
0.21642 
0.153586 
0.195623 
0.134447 
0.295769 
0.0793718 
0.693788 
0.352399 
0.858765 
0.569498 
0.904429 
0.668828 
0.422186 
0.374203 
0.120717 