# vtk DataFile Version 2.0
Ansys 2 VTK
ASCII
DATASET UNSTRUCTURED_GRID
POINTS 756 float
-1.622129007704 0.3136400000000 0.4279388681150
-1.622970313260 0.3136400000000 0.4278915670571
-1.622903924655 0.3136400000000 0.4279574597584
-1.622832147684 0.3136400000000 0.4280174479496
-1.622755685007 0.3136400000000 0.4280713332822
-1.622674632048 0.3136400000000 0.4281180068491
-1.622588689989 0.3136400000000 0.4281548189571
-1.622497672761 0.3136400000000 0.4281756186437
-1.622404549895 0.3136400000000 0.4281713541431
-1.622316748774 0.3136400000000 0.4281399292550
-1.622239313281 0.3136400000000 0.4280877283955
-1.622174996235 0.3136400000000 0.4280200421697
-1.621961565115 0.3136400000000 0.4277650022350
-1.622102642901 0.3136400000000 0.4278979125534
-1.622071832184 0.3136400000000 0.4278601807148
-1.622037950809 0.3136400000000 0.4278251641058
-1.622001566479 0.3136400000000 0.4277927642412
-1.621856623529 0.3136400000000 0.4277387734592
-1.621909094322 0.3136400000000 0.4277518878471
-1.621603610500 0.3136400000000 0.4274421106659
-1.621782883420 0.3136400000000 0.4277034108440
-1.621717691393 0.3136400000000 0.4276540450680
-1.621663660189 0.3136400000000 0.4275926577305
-1.621624003162 0.3136400000000 0.4275212012851
-1.621544187557 0.3136400000000 0.4271957108510
-1.621583802852 0.3136400000000 0.4273599773943
-1.621563995205 0.3136400000000 0.4272778441227
-1.620000000000 0.3136400000000 0.4266500000000
-1.621402940000 0.3136400000000 0.4266500000000
-1.620140294000 0.3136400000000 0.4266500000000
-1.620280588000 0.3136400000000 0.4266500000000
-1.620420882000 0.3136400000000 0.4266500000000
-1.620561176000 0.3136400000000 0.4266500000000
-1.620701470000 0.3136400000000 0.4266500000000
-1.620841764000 0.3136400000000 0.4266500000000
-1.620982058000 0.3136400000000 0.4266500000000
-1.621122352000 0.3136400000000 0.4266500000000
-1.621262646000 0.3136400000000 0.4266500000000
-1.621420595945 0.3136400000000 0.4267182138564
-1.621438251889 0.3136400000000 0.4267864277128
-1.621455907834 0.3136400000000 0.4268546415691
-1.621473563779 0.3136400000000 0.4269228554255
-1.621491219723 0.3136400000000 0.4269910692819
-1.621508875668 0.3136400000000 0.4270592831383
-1.621526531613 0.3136400000000 0.4271274969947
-1.623200000000 0.3136400000000 0.4276213717116
-1.623003125652 0.3136400000000 0.4278529677220
-1.623035938043 0.3136400000000 0.4278143683869
-1.623068750434 0.3136400000000 0.4277757690519
-1.623101562826 0.3136400000000 0.4277371697168
-1.623134375217 0.3136400000000 0.4276985703817
-1.623167187609 0.3136400000000 0.4276599710467
-1.623200000000 0.3136400000000 0.4295388681150
-1.623200000000 0.3136400000000 0.4293596542303
-1.623200000000 0.3136400000000 0.4291863946005
-1.623200000000 0.3136400000000 0.4290188913997
-1.623200000000 0.3136400000000 0.4288569533744
-1.623200000000 0.3136400000000 0.4287003956258
-1.623200000000 0.3136400000000 0.4285490393979
-1.623200000000 0.3136400000000 0.4284027118738
-1.623200000000 0.3136400000000 0.4282612459785
-1.623200000000 0.3136400000000 0.4281244801877
-1.623200000000 0.3136400000000 0.4279922583437
-1.623200000000 0.3136400000000 0.4278644294773
-1.623200000000 0.3136400000000 0.4277408476347
-1.620000000000 0.3136400000000 0.4295388681150
-1.623000000000 0.3136400000000 0.4295388681150
-1.622800000000 0.3136400000000 0.4295388681150
-1.622600000000 0.3136400000000 0.4295388681150
-1.622400000000 0.3136400000000 0.4295388681150
-1.622200000000 0.3136400000000 0.4295388681150
-1.622000000000 0.3136400000000 0.4295388681150
-1.621800000000 0.3136400000000 0.4295388681150
-1.621600000000 0.3136400000000 0.4295388681150
-1.621400000000 0.3136400000000 0.4295388681150
-1.621200000000 0.3136400000000 0.4295388681150
-1.621000000000 0.3136400000000 0.4295388681150
-1.620800000000 0.3136400000000 0.4295388681150
-1.620600000000 0.3136400000000 0.4295388681150
-1.620400000000 0.3136400000000 0.4295388681150
-1.620200000000 0.3136400000000 0.4295388681150
-1.620000000000 0.3136400000000 0.4293462769073
-1.620000000000 0.3136400000000 0.4291536856996
-1.620000000000 0.3136400000000 0.4289610944920
-1.620000000000 0.3136400000000 0.4287685032843
-1.620000000000 0.3136400000000 0.4285759120766
-1.620000000000 0.3136400000000 0.4283833208690
-1.620000000000 0.3136400000000 0.4281907296613
-1.620000000000 0.3136400000000 0.4279981384536
-1.620000000000 0.3136400000000 0.4278055472460
-1.620000000000 0.3136400000000 0.4276129560383
-1.620000000000 0.3136400000000 0.4274203648307
-1.620000000000 0.3136400000000 0.4272277736230
-1.620000000000 0.3136400000000 0.4270351824153
-1.620000000000 0.3136400000000 0.4268425912077
-1.622014926494 0.3136400000000 0.4278649977949
-1.620830261429 0.3136400000000 0.4276759795739
-1.621290051387 0.3136400000000 0.4270400588238
-1.623058875716 0.3136400000000 0.4278992963696
-1.621297208537 0.3136400000000 0.4270865706751
-1.621161373007 0.3136400000000 0.4289722755992
-1.620778729344 0.3136400000000 0.4289547295235
-1.620587492770 0.3136400000000 0.4289520031487
-1.620581059419 0.3136400000000 0.4287540454124
-1.620574511689 0.3136400000000 0.4285545521077
-1.620970929866 0.3136400000000 0.4289616169709
-1.620570010530 0.3136400000000 0.4283529296444
-1.621356259131 0.3136400000000 0.4289847104819
-1.622595110350 0.3136400000000 0.4291789725066
-1.621576919288 0.3136400000000 0.4291737675197
-1.621375371410 0.3136400000000 0.4291689985102
-1.621178224914 0.3136400000000 0.4291612749618
-1.620982912229 0.3136400000000 0.4291543061904
-1.620788421503 0.3136400000000 0.4291497305186
-1.620593043242 0.3136400000000 0.4291474701757
-1.622802515384 0.3136400000000 0.4291812324018
-1.620396716834 0.3136400000000 0.4291476181517
-1.620394686076 0.3136400000000 0.4289501331920
-1.620390533848 0.3136400000000 0.4287545249904
-1.620387936105 0.3136400000000 0.4285556146236
-1.620389267058 0.3136400000000 0.4283530974392
-1.620384262551 0.3136400000000 0.4281664025500
-1.620376453900 0.3136400000000 0.4279722895869
-1.620368397519 0.3136400000000 0.4277781848222
-1.620354502495 0.3136400000000 0.4275886503088
-1.621779438776 0.3136400000000 0.4291739840604
-1.620556601721 0.3136400000000 0.4279527683615
-1.620567268006 0.3136400000000 0.4281475247063
-1.621983479821 0.3136400000000 0.4291680890931
-1.622187221487 0.3136400000000 0.4291652603166
-1.622392222569 0.3136400000000 0.4291647269072
-1.620941367256 0.3136400000000 0.4285661670377
-1.621555099803 0.3136400000000 0.4289976342178
-1.620334803339 0.3136400000000 0.4274003091922
-1.621124193528 0.3136400000000 0.4285800948093
-1.620539439627 0.3136400000000 0.4277593679757
-1.621757434861 0.3136400000000 0.4290006232817
-1.622595319104 0.3136400000000 0.4290088986925
-1.620315887368 0.3136400000000 0.4272129328279
-1.622807124308 0.3136400000000 0.4290141617979
-1.622798117301 0.3136400000000 0.4293577582656
-1.622596621558 0.3136400000000 0.4293556187178
-1.622395517659 0.3136400000000 0.4293518386212
-1.622195790003 0.3136400000000 0.4293495626115
-1.621996810357 0.3136400000000 0.4293485227476
-1.621794470600 0.3136400000000 0.4293529542117
-1.621592192075 0.3136400000000 0.4293543244146
-1.621391100654 0.3136400000000 0.4293525805501
-1.621191964648 0.3136400000000 0.4293492312496
-1.620993705816 0.3136400000000 0.4293458276686
-1.620794759688 0.3136400000000 0.4293441999770
-1.620597410570 0.3136400000000 0.4293429369501
-1.620399855820 0.3136400000000 0.4293426787921
-1.623000852238 0.3136400000000 0.4293618240345
-1.623002227471 0.3136400000000 0.4291887321829
-1.623007432660 0.3136400000000 0.4290209467879
-1.620200400148 0.3136400000000 0.4293444542471
-1.620199081588 0.3136400000000 0.4291491449621
-1.620198345927 0.3136400000000 0.4289548314669
-1.620196943531 0.3136400000000 0.4287590730155
-1.620196654865 0.3136400000000 0.4285624326452
-1.620194293343 0.3136400000000 0.4283707480686
-1.620191739232 0.3136400000000 0.4281765503227
-1.620188480100 0.3136400000000 0.4279864943954
-1.620183562938 0.3136400000000 0.4277951504911
-1.620177041170 0.3136400000000 0.4276039744011
-1.620167917813 0.3136400000000 0.4274147629404
-1.620159407376 0.3136400000000 0.4272246026602
-1.621966056029 0.3136400000000 0.4289875319722
-1.620482932432 0.3136400000000 0.4273817253836
-1.620511025805 0.3136400000000 0.4275690732808
-1.622381219602 0.3136400000000 0.4289888879630
-1.621304648042 0.3136400000000 0.4286077676666
-1.620921021521 0.3136400000000 0.4283603072656
-1.620897991058 0.3136400000000 0.4278867378827
-1.620900967200 0.3136400000000 0.4281397365255
-1.622388316649 0.3136400000000 0.4288283804291
-1.621281556219 0.3136400000000 0.4283991913558
-1.621478683791 0.3136400000000 0.4284968827173
-1.621677884412 0.3136400000000 0.4286847977011
-1.621998088733 0.3136400000000 0.4286231929124
-1.622432936926 0.3136400000000 0.4286835064768
-1.620463258894 0.3136400000000 0.4271962211820
-1.621096160005 0.3136400000000 0.4283806065130
-1.621635508914 0.3136400000000 0.4285456206593
-1.622811971665 0.3136400000000 0.4288592327297
-1.621374686328 0.3136400000000 0.4282774370782
-1.621495664180 0.3136400000000 0.4283617258040
-1.621768560079 0.3136400000000 0.4285356426755
-1.621292747554 0.3136400000000 0.4281347361922
-1.621086903844 0.3136400000000 0.4278038428524
-1.622632037310 0.3136400000000 0.4287011471955
-1.621621930899 0.3136400000000 0.4284145839272
-1.620792196719 0.3136400000000 0.4274865431070
-1.620605734031 0.3136400000000 0.4271707053431
-1.620745905547 0.3136400000000 0.4271362047996
-1.620883355380 0.3136400000000 0.4270943441189
-1.623009086773 0.3136400000000 0.4288606337897
-1.621357579824 0.3136400000000 0.4280657556618
-1.622823806519 0.3136400000000 0.4287048857725
-1.621152150436 0.3136400000000 0.4280219788672
-1.622191084379 0.3136400000000 0.4284336708776
-1.622327460548 0.3136400000000 0.4285039039311
-1.620151295406 0.3136400000000 0.4270342626071
-1.620445608365 0.3136400000000 0.4270131110462
-1.620587469917 0.3136400000000 0.4269949291323
[...]
POINT_DATA 756

SCALARS eps_a float 1
LOOKUP_Table default
0.00277966 
0.0040666 
0.00379395 
0.00335942 
0.00296188 
0.0025284 
0.00193619 
0.00138979 
0.00179853 
0.00343087 
0.0047984 
0.00465709 
0.0012592 
0.00205236 
0.00175522 
0.00157211 
0.00134094 
0.00243572 
0.00167048 
0.00507712 
0.00426734 
0.00660886 
0.00803246 
0.00742881 
0.00200168 
0.00362658 
0.00269297 
0 
0.000417899 
0 
0 
0 
0 
0 
0.00125333 
0.00118912 
0.00104284 
0.000752967 
0.000161673 
0.000272947 
0.000420073 
0.000624743 
0.000881325 
0.00119139 
0.00155955 
0.00132209 
0.004159 
0.00427964 
0.00429144 
0.00410046 
0.00341091 
0.00232673 
0 
0 
0 
0 
0 
0.00123134 
0.000965585 
0.00082325 
0.00079411 
0.000842488 
0.000992047 
0.00110274 
0.00121668 
0 
0 
0 
0 
0 
0 
0 
0 
0 
0 
0 
0 
0 
0 
0 
0 
0 
0 
0 
0 
0 
0 
0 
0 
0 
0 
0 
0 
0 
0 
0.00164572 
0 
0.000633869 
0.00174823 
0.000695847 
0 
0 
0 
0 
0 
0 
0 
0 
0 
0 
0 
0 
0 
0 
0 
0 
0 
0 
0 
0 
0 
0 
0 
0 
0 
0 
0 
0 
0 
0 
0 
0 
0 
0 
0 
0 
0 
0 
0 
0 
0 
0 
0 
0 
0 
0 
0 
0 
0 
0 
0 
0 
0 
0 
0 
0 
0 
0 
0 
0 
0 
0 
0 
0 
0 
0 
0 
0 
0 
0 
0 
0 
0 
0 
0 
0 
0 
0 
0 
0 
0 
0.00243983 
0 
0 
0 
0 
0 
0 
0 
0 
0 
0.00216842 
0 
0 
0 
0 
0.0011605 
0 
0 
0.0017539 
0 
0.00229213 
0.00277929 
0 
0 
0 
0 
0.0012701 
0.00110641 
0.00151398 
0.00137202 
0.00109342 
0.00116725 
0.000877457 
0 
0.00228003 
0.00137382 
0 
0.00121828 
0.0012175 
0.000945392 
0.00186808 
0.00115844 
0.00102836 
0.00233233 
0.00319291 
0.00308228 
0.00245196 
0.000547358 
0 
0 
0 
0 
0.00130602 
0.00118648 
0.000934515 
0.00107769 
0.000941898 
0.000873396 
0.000863392 
0.00211357 
0.000908096 
0.00173059 
0.000977597 
0.00183237 
0.000951065 
0.000998521 
0.00094782 
0.000926891 
0.00212197 
0.00160934 
0.00105274 
0.000868711 
0.000988003 
0.00198126 
0.000931013 
0.00217249 
0.00169687 
0.00133068 
0.00109859 
0.00112477 
0.0011591 
0.000786803 
0.000885445 
0.00110082 
0.00292948 
0.000703259 
0.000809652 
0.00101193 
0.00291959 
0.00223551 
0.00144451 
0.00140058 
0.0013911 
0.00154722 
0.00195628 
0.00233147 
0.00247003 
0.00278368 
0.00297851 
0.00269367 
0.00243831 
0.00396556 
0.00362294 
0.00275217 
0.00196019 
0.00185044 
0.00171536 
0.00056537 
0.000631498 
0.000768898 
0.000897332 
0.0014855 
0.000385295 
0.00046036 
0.000646116 
0.000829467 
0.00102798 
0.0012462 
0.00229449 
0.00258023 
0.00246481 
0.00376068 
0.00151867 
0.0028131 
0.00188779 
0.00192855 
0.00229557 
0.00238737 
0.0028509 
0.00169581 
0.00325402 
0.000339501 
0 
0.00123899 
0.00121557 
0.00256981 
0.00053118 
0.0026582 
0 
0.00204882 
0.00288287 
0 
0 
0.000787913 
0.000949423 
0.00138699 
0.00245695 
0.000775623 
0 
0.00157643 
0.000948005 
0.000892438 
0.000932419 
0.000891855 
0.00165538 
0.000942063 
0.00149968 
0.00142044 
0.000884669 
0.00129053 
0.00137967 
0.000922896 
0.00111084 
0.000983108 
0 
0.00201067 
0.00240539 
0 
0 
0 
0 
0 
0 
0 
0 
0 
0 
0 
0 
0 
0 
0 
0.00127372 
0.00130218 
0 
0 
0.00139212 
0 
0 
0 
0 
0.00116024 
0 
0 
0 
0 
0 
0.00277966 
0.0040666 
0.00379395 
0.00335942 
0.00296188 
0.0025284 
0.00193619 
0.00138979 
0.00179853 
0.00343087 
0.0047984 
0.00465709 
0.0012592 
0.00205236 
0.00175522 
0.00157211 
0.00134094 
0.00243572 
0.00167048 
0.00507712 
0.00426734 
0.00660886 
0.00803246 
0.00742881 
0.00200168 
0.00362658 
0.00269297 
0 
0.000417899 
0 
0 
0 
0 
0 
0.00125333 
0.00118912 
0.00104284 
0.000752967 
0.000161673 
0.000272947 
0.000420073 
0.000624743 
0.000881325 
0.00119139 
0.00155955 
0.00132209 
0.004159 
0.00427964 
0.00429144 
0.00410046 
0.00341091 
0.00232673 
0 
0 
0 
0 
0 
0 
0 
0 
0 
0 
0 
0 
0 
0 
0 
0 
0 
0 
0 
0 
0 
0.00123134 
0.000965585 
0.00082325 
0.00079411 
0.000842488 
0.000992047 
0.00110274 
0.00121668 
0 
0 
0 
0 
0 
0 
0 
0 
0 
0 
0 
0 
0 
0 
0.00164572 
0 
0.000633869 
0.00174823 
0.000695847 
0 
0 
0 
0 
0 
0 
0 
0 
0 
0 
0 
0 
0 
0 
0 
0 
0 
0 
0 
0 
0 
0 
0 
0 
0 
0 
0 
0 
0 
0 
0 
0 
0 
0 
0 
0 
0 
0 
0 
0 
0 
0 
0 
0 
0 
0 
0 
0 
0 
0 
0 
0 
0 
0 
0 
0 
0 
0 
0 
0 
0 
0 
0 
0 
0 
0 
0 
0 
0 
0 
0 
0 
0 
0 
0 
0 
0 
0 
0 
0 
0 
0.00243983 
0 
0 
0 
0 
0 
0 
0 
0 
0 
0.00216842 
0 
0 
0 
0 
0.0011605 
0 
0 
0.0017539 
0 
0.00229213 
0.00277929 
0 
0 
0 
0 
0.0012701 
0.00110641 
0.00151398 
0.00137202 
0.00109342 
0.00116725 
0.000877457 
0 
0.00228003 
0.00137382 
0 
0.00121828 
0.0012175 
0.000945392 
0.00186808 
0.00115844 
0.00102836 
0.00233233 
0.00319291 
0.00308228 
0.00245196 
0.000547358 
0 
0 
0 
0 
0.00130602 
0.00118648 
0.000934515 
0.00107769 
0.000941898 
0.000873396 
0.000863392 
0.00211357 
0.000908096 
0.00173059 
0.000977597 
0.00183237 
0.000951065 
0.000998521 
0.00094782 
0.000926891 
0.00212197 
0.00160934 
0.00105274 
0.000868711 
0.000988003 
0.00198126 
0.000931013 
0.00217249 
0.00169687 
0.00133068 
0.00109859 
0.00112477 
0.0011591 
0.000786803 
0.000885445 
0.00110082 
0.00292948 
0.000703259 
0.000809652 
0.00101193 
0.00291959 
0.00223551 
0.00144451 
0.00140058 
0.0013911 
0.00154722 
0.00195628 
0.00233147 
0.00247003 
0.00278368 
0.00297851 
0.00269367 
0.00243831 
0.00396556 
0.00362294 
0.00275217 
0.00196019 
0.00185044 
0.00171536 
0.00056537 
0.000631498 
0.000768898 
0.000897332 
0.0014855 
0.000385295 
0.00046036 
0.000646116 
0.000829467 
0.00102798 
0.0012462 
0.00229449 
0.00258023 
0.00246481 
0.00376068 
0.00151867 
0.0028131 
0.00188779 
0.00192855 
0.00229557 
0.00238737 
0.0028509 
0.00169581 
0.00325402 
0.000339501 
0 
0.00123899 
0.00121557 
0.00256981 
0.00053118 
0.0026582 
0 
0.00204882 
0.00288287 
0 
0 
0.000787913 
0.000949423 
0.00138699 
0.00245695 
0.000775623 
0 
0.00157643 
0.000948005 
0.000892438 
0.000932419 
0.000891855 
0.00165538 
0.000942063 
0.00149968 
0.00142044 
0.000884669 
0.00129053 
0.00137967 
0.000922896 
0.00111084 
0.000983108 
0 
0.00201067 
0.00240539 
0 
0 
0 
0 
0 
0 
0 
0 
0 
0 
0 
0 
0 
0 
0 
0.00127372 
0.00130218 
0 
0 
0.00139212 
0 
0 
0 
0 
0.00116024 
0 
0 
0 
0 
0 

SCALARS Nbr float 1
LOOKUP_Table default
218 
226 
228 
230 
232 
234 
236 
238 
240 
242 
244 
246 
368 
377 
379 
381 
383 
432 
441 
466 
475 
477 
479 
481 
532 
541 
543 
568 
576 
578 
580 
582 
584 
586 
588 
590 
592 
594 
712 
714 
716 
718 
720 
722 
724 
813 
815 
817 
819 
821 
823 
825 
897 
899 
901 
903 
905 
907 
909 
911 
913 
915 
917 
919 
921 
923 
925 
927 
929 
931 
933 
935 
937 
939 
941 
943 
945 
947 
949 
951 
953 
956 
958 
960 
962 
964 
966 
968 
970 
972 
974 
976 
978 
980 
982 
1596 
1597 
1598 
1599 
1600 
1601 
1602 
1603 
1604 
1605 
1606 
1607 
1608 
1609 
1610 
1611 
1612 
1613 
1614 
1615 
1616 
1617 
1618 
1619 
1620 
1621 
1622 
1623 
1624 
1625 
1626 
1627 
1628 
1629 
1630 
1631 
1632 
1633 
1634 
1635 
1636 
1637 
1638 
1639 
1640 
1641 
1642 
1643 
1644 
1645 
1646 
1647 
1648 
1649 
1650 
1651 
1652 
1653 
1654 
1655 
1656 
1657 
1658 
1659 
1660 
1661 
1662 
1663 
1664 
1665 
1666 
1667 
1668 
1669 
1670 
1671 
1672 
1673 
1674 
1675 
1676 
1677 
1678 
1679 
1680 
1681 
1682 
1683 
1684 
1685 
1686 
1687 
1688 
1689 
1690 
1691 
1692 
1693 
1694 
1695 
1696 
1697 
1698 
1699 
1700 
1701 
1702 
1703 
1704 
1705 
1706 
1707 
1708 
1709 
1710 
1711 
1712 
1713 
1714 
1715 
1716 
1717 
1718 
1719 
1720 
1721 
1722 
1723 
1724 
1725 
1726 
1727 
1728 
1729 
1730 
1731 
1732 
1733 
1734 
1735 
1736 
1737 
1738 
1739 
1740 
1741 
1742 
1743 
1744 
1745 
1746 
1747 
1748 
1749 
1750 
1751 
1752 
1753 
1754 
1755 
1756 
1757 
1758 
1759 
1760 
1761 
1762 
1763 
1764 
1765 
1766 
1767 
1768 
1769 
1770 
1771 
1772 
1773 
1774 
1775 
1776 
1777 
1778 
1779 
1780 
1781 
1782 
1783 
1784 
1785 
1786 
1787 
1788 
1789 
1790 
1791 
1792 
1793 
1794 
1795 
1796 
1797 
1798 
1799 
1800 
1801 
1802 
1803 
1804 
1805 
1806 
1807 
1808 
1809 
1810 
1811 
1812 
1813 
1814 
1815 
1816 
1817 
1818 
1819 
1820 
1821 
1822 
1823 
1824 
1825 
1826 
1827 
1828 
1829 
1830 
1831 
1832 
1833 
1834 
1835 
1836 
1837 
1838 
1839 
1840 
1841 
1842 
1843 
1844 
1845 
1846 
1847 
1848 
1849 
1850 
1851 
1852 
1853 
1854 
1855 
1856 
1857 
1858 
1859 
1860 
1861 
1862 
1863 
1864 
1865 
1866 
1867 
1868 
1869 
1870 
1871 
1872 
1873 
1874 
1875 
1876 
1877 
1878 
6892 
6900 
6902 
6904 
6906 
6908 
6910 
6912 
6914 
6916 
6918 
6920 
7102 
7111 
7113 
7115 
7117 
7191 
7200 
7235 
7244 
7246 
7248 
7250 
7326 
7335 
7337 
7398 
7406 
7408 
7410 
7412 
7414 
7416 
7418 
7420 
7422 
7424 
7597 
7599 
7601 
7603 
7605 
7607 
7609 
7733 
7735 
7737 
7739 
7741 
7743 
7745 
7852 
7853 
7855 
7857 
7859 
7861 
7863 
7865 
7867 
7869 
7871 
7873 
7875 
7877 
7879 
7881 
7883 
8471 
8473 
8475 
8477 
8479 
8481 
8483 
8485 
8487 
8489 
8491 
8493 
8497 
8499 
8501 
8503 
8505 
8507 
8509 
8511 
8513 
8515 
8517 
8519 
8521 
8523 
9156 
9157 
9158 
9159 
9160 
9161 
9162 
9163 
9164 
9165 
9166 
9167 
9168 
9169 
9170 
9171 
9172 
9173 
9174 
9175 
9176 
9177 
9178 
9179 
9180 
9181 
9182 
9183 
9184 
9185 
9186 
9187 
9188 
9189 
9190 
9191 
9192 
9193 
9194 
9195 
9196 
9197 
9198 
9199 
9200 
9201 
9202 
9203 
9204 
9205 
9206 
9207 
9208 
9209 
9210 
9211 
9212 
9213 
9214 
9215 
9216 
9217 
9218 
9219 
9220 
9221 
9222 
9223 
9224 
9225 
9226 
9227 
9228 
9229 
9230 
9231 
9232 
9233 
9234 
9235 
9236 
9237 
9238 
9239 
9240 
9241 
9242 
9243 
9244 
9245 
9246 
9247 
9248 
9249 
9250 
9251 
9252 
9253 
9254 
9255 
9256 
9257 
9258 
9259 
9260 
9261 
9262 
9263 
9264 
9265 
9266 
9267 
9268 
9269 
9270 
9271 
9272 
9273 
9274 
9275 
9276 
9277 
9278 
9279 
9280 
9281 
9282 
9283 
9284 
9285 
9286 
9287 
9288 
9289 
9290 
9291 
9292 
9293 
9294 
9295 
9296 
9297 
9298 
9299 
9300 
9301 
9302 
9303 
9304 
9305 
9306 
9307 
9308 
9309 
9310 
9311 
9312 
9313 
9314 
9315 
9316 
9317 
9318 
9319 
9320 
9321 
9322 
9323 
9324 
9325 
9326 
9327 
9328 
9329 
9330 
9331 
9332 
9333 
9334 
9335 
9336 
9337 
9338 
9339 
9340 
9341 
9342 
9343 
9344 
9345 
9346 
9347 
9348 
9349 
9350 
9351 
9352 
9353 
9354 
9355 
9356 
9357 
9358 
9359 
9360 
9361 
9362 
9363 
9364 
9365 
9366 
9367 
9368 
9369 
9370 
9371 
9372 
9373 
9374 
9375 
9376 
9377 
9378 
9379 
9380 
9381 
9382 
9383 
9384 
9385 
9386 
9387 
9388 
9389 
9390 
9391 
9392 
9393 
9394 
9395 
9396 
9397 
9398 
9399 
9400 
9401 
9402 
9403 
9404 
9405 
9406 
9407 
9408 
9409 
9410 
9411 
9412 
9413 
9414 
9415 
9416 
9417 
9418 
9419 
9420 
9421 
9422 
9423 
9424 
9425 
9426 
9427 
9428 
9429 
9430 
9431 
9432 
9433 
9434 
9435 
9436 
9437 
9438 

SCALARS Random float 1
LOOKUP_Table default
0.306403 
0.221983 
0.101542 
0.306466 
0.472821 
0.611666 
0.777758 
0.838856 
0.484263 
0.999129 
0.491376 
0.251251 
0.561914 
0.0519865 
0.453532 
0.257322 
0.318142 
0.0803084 
0.129205 
0.847781 
0.813915 
0.718459 
0.712889 
0.703881 
0.650622 
0.584372 
0.69221 
0.616463 
0.698425 
0.103419 
0.474465 
0.387386 
0.244312 
0.427936 
0.245493 
0.0444568 
0.669538 
0.646769 
0.371965 
0.428427 
0.779729 
0.539136 
0.588995 
0.818075 
0.0639367 
0.848711 
0.718233 
0.0759439 
0.378181 
0.951295 
0.976441 
0.479325 
0.599025 
0.359813 
0.333416 
0.999172 
0.784 
0.193893 
0.591817 
0.00626314 
0.571885 
0.543944 
0.129678 
0.721945 
0.503493 
0.231501 
0.926399 
0.705377 
0.051893 
0.755944 
0.227832 
0.692648 
0.863161 
0.875946 
0.769666 
0.0215846 
0.180926 
0.692217 
0.5427 
0.569253 
0.784659 
0.641057 
0.474612 
0.644978 
0.713772 
0.360235 
0.133638 
0.749238 
0.339405 
0.897595 
0.871973 
0.209223 
0.716693 
0.868868 
0.109403 
0.509233 
0.53956 
0.161612 
0.791516 
0.832618 
0.187782 
0.802318 
0.341187 
0.458921 
0.340531 
0.0152756 
0.174851 
0.950146 
0.523379 
0.584063 
0.82035 
0.81814 
0.49932 
0.307313 
0.584289 
0.363413 
0.148988 
0.948066 
0.719423 
0.731837 
0.648852 
0.615274 
0.667167 
0.168395 
0.461262 
0.480601 
0.580576 
0.694731 
0.712291 
0.829846 
0.830195 
0.900797 
0.236716 
0.894584 
0.60225 
0.922527 
0.904423 
0.382893 
0.387979 
0.0938899 
0.959623 
0.190056 
0.826873 
0.752711 
0.437994 
0.106515 
0.891209 
0.440285 
0.727638 
0.420562 
0.240389 
0.604395 
0.0544256 
0.515427 
0.869133 
0.519631 
0.315846 
0.315064 
0.973785 
0.897588 
0.511519 
0.104484 
0.305058 
0.617506 
0.868684 
0.58062 
0.945355 
0.254766 
0.0190244 
0.210023 
0.274707 
0.622361 
0.909929 
0.588804 
0.939821 
0.439008 
0.115311 
0.522228 
0.962473 
0.0198843 
0.218403 
0.823949 
0.372653 
0.0579875 
0.539641 
0.687614 
0.387961 
0.819645 
0.254014 
0.282938 
0.573266 
0.820988 
0.575256 
0.768602 
0.873869 
0.788825 
0.273231 
0.197779 
0.146434 
0.910708 
0.568558 
0.10122 
0.161561 
0.176716 
0.603267 
0.288328 
0.813643 
0.720045 
0.219914 
0.804577 
0.436928 
0.20738 
0.323136 
0.788849 
0.925921 
0.477731 
0.209972 
0.0976672 
0.822992 
0.253788 
0.959521 
0.622737 
0.791902 
0.301413 
0.919066 
0.56994 
0.823932 
0.489301 
0.0479337 
0.426702 
0.525155 
0.63443 
0.208226 
0.134127 
0.299743 
0.705177 
0.905366 
0.917738 
0.960996 
0.711409 
0.441892 
0.593157 
0.705924 
0.359591 
0.596909 
0.958545 
0.950537 
0.662964 
0.912023 
0.0057851 
0.715561 
0.608664 
0.539158 
0.526514 
0.889276 
0.80249 
0.445144 
0.417692 
0.83693 
0.727807 
0.704974 
0.330229 
0.973199 
0.872228 
0.684291 
0.42342 
0.701403 
0.585042 
0.60232 
0.958415 
0.766311 
0.318111 
0.714909 
0.393483 
0.606419 
0.774163 
0.635697 
0.696884 
0.475316 
0.811091 
0.199958 
0.137388 
0.809196 
0.485267 
0.426357 
0.667849 
0.148757 
0.0504596 
0.955952 
0.168627 
0.135954 
0.938931 
0.604525 
0.331959 
0.243751 
0.43734 
0.042135 
0.166412 
0.385804 
0.237424 
0.390006 
0.723273 
0.592028 
0.996508 
0.388973 
0.62426 
0.0734453 
0.753389 
0.980831 
0.505495 
0.302942 
0.702424 
0.425754 
0.132452 
0.325037 
0.189115 
0.595657 
0.735722 
0.742234 
0.467114 
0.967457 
0.0881095 
0.149884 
0.0141128 
0.845086 
0.732899 
0.287455 
0.30251 
0.932555 
0.123332 
0.309375 
0.865735 
0.0695908 
0.536742 
0.274767 
0.491657 
0.16055 
0.709778 
0.904344 
0.2831 
0.409592 
0.421404 
0.0911748 
0.395178 
0.0495229 
0.0408175 
0.708018 
0.0153006 
0.809806 
0.835224 
0.848083 
0.763262 
0.695602 
0.134797 
0.346171 
0.954727 
0.483607 
0.876837 
0.286782 
0.153675 
0.566713 
0.35787 
0.437397 
0.873773 
0.20875 
0.643383 
0.662634 
0.85404 
0.173249 
0.955041 
0.24965 
0.159364 
0.807764 
0.541795 
0.607886 
0.574815 
0.016736 
0.892655 
0.175668 
0.512972 
0.931255 
0.662252 
0.494321 
0.338247 
0.572229 
0.139311 
0.0305797 
0.644915 
0.056007 
0.320425 
0.218216 
0.407265 
0.953503 
0.893987 
0.211338 
0.172871 
0.174179 
0.212888 
0.652038 
0.419162 
0.951777 
0.36106 
0.925859 
0.387499 
0.846484 
0.401886 
0.78915 
0.549031 
0.0183447 
0.776621 
0.632015 
0.336841 
0.707787 
0.671196 
0.855445 
0.583459 
0.187429 
0.121438 
0.0700966 
0.256839 
0.137007 
0.67282 
0.890079 
0.265632 
0.0181571 
0.457244 
0.432535 
0.646335 
0.320764 
0.384492 
0.449037 
0.58172 
0.944011 
0.643549 
0.500505 
0.666365 
0.473788 
0.325444 
0.488283 
0.184787 
0.471731 
0.895109 
0.0903405 
0.420925 
0.632255 
0.428635 
0.650841 
0.0193111 
0.395424 
0.0870504 
0.551332 
0.511702 
0.0132667 
0.859805 
0.391003 
0.294555 
0.548353 
0.854433 
0.519939 
0.670819 
0.38085 
0.233102 
0.536839 
0.638647 
0.136144 
0.543667 
0.843798 
0.0395135 
0.949238 
0.204627 
0.499576 
0.671033 
0.913116 
0.019039 
0.532393 
0.0340575 
0.75684 
0.344506 
0.789656 
0.723843 
0.745656 
0.431543 
0.543879 
0.171367 
0.237399 
0.515259 
0.204316 
0.488812 
0.299459 
0.874401 
0.28827 
0.432259 
0.833345 
0.98696 
0.0986948 
0.553652 
0.592904 
0.782704 
0.355187 
0.611203 
0.898215 
0.219675 
0.227695 
0.530245 
0.255919 
0.878628 
0.691825 
0.0789834 
0.100825 
0.683152 
0.531636 
0.953691 
0.857271 
0.889355 
0.825965 
0.789872 
0.831027 
0.445988 
0.688115 
0.0179746 
0.631402 
0.254118 
0.356291 
0.264027 
0.00870087 
0.414171 
0.28658 
0.914417 
0.375547 
0.538502 
0.100037 
0.330744 
0.874975 
0.703203 
0.634561 
0.00901548 
0.690592 
0.622397 
0.92473 
0.788559 
0.83885 
0.171362 
0.459053 
0.203246 
0.0311804 
0.775334 
0.181855 
0.626475 
0.25404 
0.408277 
0.00790613 
0.770047 
0.18073 
0.234648 
0.0825179 
0.39748 
0.481617 
0.836321 
0.907158 
0.244826 
0.873829 
0.335085 
0.863863 
0.209922 
0.537686 
0.901182 
0.279746 
0.250543 
0.971919 
0.0883792 
0.939952 
0.966899 
0.466964 
0.0411651 
0.316576 
0.223644 
0.0404318 
0.762592 
0.123861 
0.396881 
0.554434 
0.354652 
0.522051 
0.455647 
0.993054 
0.789389 
0.870285 
0.954433 
0.521502 
0.793129 
0.35205 
0.406547 
0.194289 
0.65644 
0.146741 
0.00405272 
0.501554 
0.506082 
0.974091 
0.317476 
0.455723 
0.0602849 
0.537673 
0.0259188 
0.633022 
0.367916 
0.502466 
0.977722 
0.288003 
0.545806 
0.282818 
0.822606 
0.52927 
0.992503 
0.844502 
0.731417 
0.135431 
0.750745 
0.965157 
0.695907 
0.210969 
0.967442 
0.651355 
0.118605 
0.758439 
0.700868 
0.017376 
0.546971 
0.382713 
0.825979 
0.700979 
0.708761 
0.584447 
0.388697 
0.297117 
0.989982 
0.493191 
0.154603 
0.5611 
0.33915 
0.0960488 
0.854078 
0.651612 
0.061026 
0.398353 
0.620511 
0.214706 
0.0335729 
0.805996 
0.845148 
0.23219 
0.726748 
0.232697 
0.731054 
0.112654 
0.514754 
0.81111 
0.688485 
0.479409 
0.636681 
0.459055 
0.37389 
0.678935 
0.273868 
0.377894 
0.638944 
0.537819 
0.158925 
0.272589 
0.584358 
0.690244 
0.400631 
0.0848414 
0.598489 
0.871051 
0.0105093 
0.388193 
0.78007 
0.867102 
0.755864 
0.816876 
0.464645 
0.524808 
0.340142 
0.934536 
0.738179 
0.831906 
0.739905 
0.164061 
0.419765 
0.152986 
0.322054 
0.193815 
0.914488 
0.858538 
0.519139 
0.0577856 
0.524329 
0.633224 
0.609214 
0.772019 
0.299512 
0.0549977 
0.896723 
0.745642 
0.227537 
0.0551105 
0.909931 
0.479405 
0.137197 
0.151794 
0.500741 
0.62693 
0.0334837 
0.775953 
0.608256 
0.942499 
0.22954 
0.659354 
0.363408 
0.208496 
0.894872 
0.789496 
0.206938 
0.404001 
0.566727 
0.755661 
0.553241 
0.918833 
0.262318 
0.452752 
0.421341 
0.722939 
0.00524239 
0.728059 
0.474037 
0.983578 
0.251183 
0.907019 
0.208476 
0.973805 
0.454774 
0.914287 
0.245588 
0.736119 
0.901124 
0.559505 
0.505732 
0.419615 
0.422627 
0.905984 
0.985775 
0.720365 
0.976945 
0.739788 
0.814819 

SCALARS Sin float 1
LOOKUP_Table default
0 
0.008322 
0.0166434 
0.0249637 
0.0332823 
0.0415985 
0.0499119 
0.0582218 
0.0665276 
0.0748289 
0.083125 
0.0914153 
0.0996993 
0.107976 
0.116246 
0.124508 
0.13276 
0.141004 
0.149238 
0.157462 
0.165675 
0.173876 
0.182065 
0.190242 
0.198405 
0.206555 
0.21469 
0.222811 
0.230916 
0.239005 
0.247077 
0.255133 
0.263171 
0.27119 
0.279191 
0.287172 
0.295134 
0.303075 
0.310995 
0.318894 
0.32677 
0.334624 
0.342455 
0.350262 
0.358044 
0.365802 
0.373535 
0.381241 
0.388922 
0.396575 
0.404201 
0.411799 
0.419368 
0.426908 
0.434419 
0.4419 
0.44935 
0.456769 
0.464156 
0.471511 
0.478834 
0.486123 
0.493379 
0.5006 
0.507787 
0.514939 
0.522055 
0.529135 
0.536178 
0.543184 
0.550153 
0.557083 
0.563975 
0.570827 
0.577641 
0.584414 
0.591147 
0.597838 
0.604489 
0.611097 
0.617663 
0.624187 
0.630667 
0.637103 
0.643496 
0.649843 
0.656146 
0.662404 
0.668615 
0.67478 
0.680899 
0.68697 
0.692994 
0.698969 
0.704897 
0.710775 
0.716604 
0.722384 
0.728114 
0.733793 
0.739421 
0.744998 
0.750524 
0.755997 
0.761418 
0.766787 
0.772102 
0.777364 
0.782572 
0.787726 
0.792825 
0.79787 
0.802859 
0.807792 
0.81267 
0.817491 
0.822256 
0.826964 
0.831614 
0.836207 
0.840742 
0.845219 
0.849637 
0.853996 
0.858296 
0.862537 
0.866718 
0.870839 
0.8749 
0.8789 
0.882839 
0.886717 
0.890534 
0.894289 
0.897982 
0.901613 
0.905181 
0.908687 
0.91213 
0.915509 
0.918825 
0.922078 
0.925267 
0.928391 
0.931452 
0.934448 
0.937379 
0.940245 
0.943046 
0.945782 
0.948452 
0.951057 
0.953595 
0.956068 
0.958474 
0.960814 
0.963088 
0.965295 
0.967435 
0.969508 
0.971514 
0.973452 
0.975323 
0.977127 
0.978863 
0.980531 
0.982131 
0.983663 
0.985127 
0.986523 
0.987851 
0.98911 
0.9903 
0.991422 
0.992476 
0.99346 
0.994376 
0.995223 
0.996001 
0.99671 
0.99735 
0.997921 
0.998423 
0.998855 
0.999219 
0.999513 
0.999738 
0.999894 
0.999981 
0.999998 
0.999946 
0.999825 
0.999634 
0.999375 